 Q-Chem 6.0 (devel), Q-Chem, Inc., Pleasanton, CA (2022)
 Q-Chem 6.0.2 for Intel X86 EM64T Linux

User input:
--------------------------------------------------------------
$comment
Trans isomer (planar structure)

EOM-EA-CCSD/cc-pVDZ opt for the 1A' state starting from a charge +1 singlet

doublet reference for an EOM-EE job
$end

$molecule
0 2
  C       5.3832949554     1.1268023932    -0.0000000000
  C       3.9857848754     1.0242652883    -0.0000000000
  C       6.1864366870    -0.0311896649     0.0000000000
  C       5.5825967915    -1.2986615016     0.0000000000
  C       4.1810701040    -1.4061755307     0.0000000000
  C       3.3823631861    -0.2507216815    -0.0000000000
  N       1.9614847270    -0.4835236846    -0.0000000000
  N       1.2812134824     0.5744215944    -0.0000000000
  C      -0.1339985068     0.3649235430    -0.0000000000
  C      -0.9257923961     1.5257693382    -0.0000000000
  C      -2.3247269471     1.4417831343     0.0000000001
  C      -2.9688065782     0.1818510535     0.0000000000
  C      -2.1571876382    -0.9857954463    -0.0000000000
  C      -0.7640421169    -0.8992048201    -0.0000000001
  H       5.8537616426     2.1167460216    -0.0000000000
  H       3.3494475397     1.9129885234    -0.0000000001
  H       7.2785746364     0.0584934720     0.0000000000
  H       6.2000128737    -2.2038310242     0.0000000001
  H       3.6827083791    -2.3812968442     0.0000000001
  H      -0.4209780821     2.4983115557     0.0000000000
  H      -2.9389457145     2.3492456808     0.0000000001
  H      -2.6524563713    -1.9638216298    -0.0000000000
  H      -0.1447973927    -1.8007567674    -0.0000000001
  O      -4.3059650637     0.0857744134     0.0000000000
  Ca     -6.4134084937    -0.0683092669     0.0000000000
$end

$rem
! method
  method = eom-ccsd
  ee_states = [9, 6]

! basis
  basis = aug-cc-pVDZ

! memory
  !mem_total = 12800              ! Batch (qchempbs_mp4)
  !cc_memory = 10240
  !mem_total = 102400             ! Big (qchempbs_mp12)
  !cc_memory = 81920
  mem_total = 307200              ! Giant (qchempbs_mp16)
  cc_memory = 245760
  !mem_total = 201840             ! Huge (qchempbs_mp20)
  !cc_memory = 161472

! Properties
  cc_eom_prop = true              ! \mu, \expval{x^2} and alike
  cc_eom_prop_te = true           ! <S^2>

! NTOs
  state_analysis = true           ! needs to be activated for NTOs to start
  cc_trans_prop = 1               ! 1: ccsd ref/cc_state_to_opt -> eom; 2: eom <--> eom
  !cc_state_to_opt = [1, 1]       ! if only transition from one state [irrep #, state in the irrep]
  nto_pairs = 2                   ! # of pairs per excited state (in .out)
  !gui = 2                        ! The NTOs are generated for iqmol but they seem to be a mess
  molden_format = true            ! Use with the 'save' option while running Q-Chem
  wfa_orb_thresh = 1              ! N = 3; Export all NTO/NO/NDO pairs with a weight above 10^-N
$end
--------------------------------------------------------------

             Standard Nuclear Orientation (Angstroms)
    I     Atom           X                Y                Z
 ----------------------------------------------------------------
    1      C       5.3870861020     1.1910111415    -0.0000000000
    2      C       3.9918906954     1.0607112606    -0.0000000000
    3      C       6.2130904351     0.0492147107     0.0000000000
    4      C       5.6345677094    -1.2300112006     0.0000000000
    5      C       4.2354554323    -1.3653668738     0.0000000000
    6      C       3.4139354970    -0.2260199844     0.0000000000
    7      N       1.9979660462    -0.4870235911     0.0000000000
    8      N       1.2967968854     0.5571885461    -0.0000000000
    9      C      -0.1139705070     0.3195969371    -0.0000000000
   10      C      -0.9286859739     1.4644721405    -0.0000000000
   11      C      -2.3256743690     1.3526911752     0.0000000001
   12      C      -2.9445787708     0.0802035482    -0.0000000000
   13      C      -2.1099069707    -1.0710768860     0.0000000000
   14      C      -0.7187582380    -0.9568071014    -0.0000000001
   15      H       5.8377793466     2.1901121827    -0.0000000000
   16      H       3.3380109602     1.9366082211    -0.0000000001
   17      H       7.3032296050     0.1605922479    -0.0000000000
   18      H       6.2698568891    -2.1227273600     0.0000000001
   19      H       3.7565779896    -2.3502030935     0.0000000001
   20      H      -0.4433059439     2.4468580539    -0.0000000000
   21      H      -2.9578124520     2.2477634693     0.0000000001
   22      H      -2.5856342829    -2.0587559118     0.0000000000
   23      H      -0.0817126965    -1.8458700464    -0.0000000001
   24      O      -4.2795629470    -0.0424373316    -0.0000000000
   25      Ca     -6.3835266305    -0.2383873501    -0.0000000000
 ----------------------------------------------------------------

   31   -1320.2682401229      6.14e-09  Convergence criterion met
 Total energy in the final basis set =    -1320.2682401229
 CCSD total energy          = -1322.41611082
        Solving for EOMEE-CCSD A' transitions.
 EOMEE transition 1/A'
 Total energy = -1322.33974581 a.u.  Excitation energy = 2.0780 eV.
 EOMEE transition 2/A'
 Total energy = -1322.32958391 a.u.  Excitation energy = 2.3545 eV.
 EOMEE transition 3/A'
 Total energy = -1322.32082004 a.u.  Excitation energy = 2.5930 eV.
 EOMEE transition 4/A'
 Total energy = -1322.30483360 a.u.  Excitation energy = 3.0280 eV.
 EOMEE transition 5/A'
 Total energy = -1322.28115585 a.u.  Excitation energy = 3.6723 eV.
 EOMEE transition 6/A'
 Total energy = -1322.27688813 a.u.  Excitation energy = 3.7884 eV.
 EOMEE transition 7/A'
 Total energy = -1322.27053327 a.u.  Excitation energy = 3.9614 eV.
 EOMEE transition 8/A'
 Total energy = -1322.27025183 a.u.  Excitation energy = 3.9690 eV.
 EOMEE transition 9/A'
 Total energy = -1322.26132391 a.u.  Excitation energy = 4.2120 eV.
 EOMEE-CCSD transition 1/A'
 EOMEE-CCSD transition 2/A'
 EOMEE-CCSD transition 3/A'
 EOMEE-CCSD transition 4/A'
 EOMEE-CCSD transition 5/A'
 EOMEE-CCSD transition 6/A'
 EOMEE-CCSD transition 7/A'
 EOMEE-CCSD transition 8/A'
 EOMEE-CCSD transition 9/A'
 Excited state properties for  EOMEE-CCSD transition 1/A'
 Excited state properties for  EOMEE-CCSD transition 2/A'
 Excited state properties for  EOMEE-CCSD transition 3/A'
 Excited state properties for  EOMEE-CCSD transition 4/A'
 Excited state properties for  EOMEE-CCSD transition 5/A'
 Excited state properties for  EOMEE-CCSD transition 6/A'
 Excited state properties for  EOMEE-CCSD transition 7/A'
 Excited state properties for  EOMEE-CCSD transition 8/A'
 Excited state properties for  EOMEE-CCSD transition 9/A'
        Solving for EOMEE-CCSD A" transitions.
 EOMEE transition 1/A"
 Total energy = -1322.33922641 a.u.  Excitation energy = 2.0921 eV.
 EOMEE transition 2/A"
 Total energy = -1322.30473276 a.u.  Excitation energy = 3.0308 eV.
 EOMEE transition 3/A"
 Total energy = -1322.29538847 a.u.  Excitation energy = 3.2850 eV.
 EOMEE transition 4/A"
 Total energy = -1322.27969999 a.u.  Excitation energy = 3.7119 eV.
 EOMEE transition 5/A"
 Total energy = -1322.25695381 a.u.  Excitation energy = 4.3309 eV.
 EOMEE transition 6/A"
 Total energy = -1322.25026463 a.u.  Excitation energy = 4.5129 eV.
 EOMEE-CCSD transition 1/A"
 EOMEE-CCSD transition 2/A"
 EOMEE-CCSD transition 3/A"
 EOMEE-CCSD transition 4/A"
 EOMEE-CCSD transition 5/A"
 EOMEE-CCSD transition 6/A"
 Excited state properties for  EOMEE-CCSD transition 1/A"
 Excited state properties for  EOMEE-CCSD transition 2/A"
 Excited state properties for  EOMEE-CCSD transition 3/A"
 Excited state properties for  EOMEE-CCSD transition 4/A"
 Excited state properties for  EOMEE-CCSD transition 5/A"
 Excited state properties for  EOMEE-CCSD transition 6/A"

             Orbital Energies (a.u.) and Symmetries
 --------------------------------------------------------------

 Alpha MOs, Unrestricted
 -- Occupied --
-149.36  -20.52  -16.82  -15.62  -15.62  -13.63  -13.63  -13.63
  1 A'    2 A'    3 A'    4 A'    5 A'    1 A"    6 A'    7 A'
-11.295 -11.265 -11.246 -11.242 -11.241 -11.241 -11.240 -11.238
  8 A'    9 A'   10 A'   11 A'   12 A'   13 A'   14 A'   15 A'
-11.238 -11.237 -11.222 -11.220  -2.249  -1.369  -1.351  -1.349
 16 A'   17 A'   18 A'   19 A'   20 A'   21 A'   22 A'    2 A"
 -1.349  -1.293  -1.151  -1.123  -1.047  -1.008  -1.003  -0.979
 23 A'   24 A'   25 A'   26 A'   27 A'   28 A'   29 A'   30 A'
 -0.895  -0.826  -0.825  -0.797  -0.756  -0.698  -0.677  -0.655
 31 A'   32 A'   33 A'   34 A'   35 A'   36 A'   37 A'   38 A'
 -0.649  -0.619  -0.600  -0.588  -0.584  -0.574  -0.568  -0.560
 39 A'   40 A'   41 A'   42 A'   43 A'   44 A'   45 A'    3 A"
 -0.535  -0.529  -0.509  -0.491  -0.486  -0.486  -0.436  -0.427
  4 A"   46 A'   47 A'   48 A'    5 A"   49 A'    6 A"   50 A'
 -0.380  -0.331  -0.329  -0.327  -0.267  -0.224
 51 A'    7 A"    8 A"    9 A"   10 A"   52 A'

 Beta MOs, Unrestricted
 -- Occupied --
-149.36  -20.52  -16.82  -15.63  -15.62  -13.63  -13.63  -13.63
  1 A'    2 A'    3 A'    4 A'    5 A'    6 A'    1 A"    7 A'
-11.295 -11.265 -11.246 -11.242 -11.241 -11.241 -11.240 -11.239
  8 A'    9 A'   10 A'   11 A'   12 A'   13 A'   14 A'   15 A'
-11.238 -11.237 -11.222 -11.220  -2.241  -1.364  -1.351  -1.346
 16 A'   17 A'   18 A'   19 A'   20 A'   21 A'   22 A'    2 A"
 -1.346  -1.292  -1.151  -1.123  -1.047  -1.008  -1.003  -0.979
 23 A'   24 A'   25 A'   26 A'   27 A'   28 A'   29 A'   30 A'
 -0.895  -0.826  -0.825  -0.797  -0.756  -0.698  -0.677  -0.654
 31 A'   32 A'   33 A'   34 A'   35 A'   36 A'   37 A'   38 A'
 -0.648  -0.619  -0.600  -0.588  -0.584  -0.574  -0.568  -0.560
 39 A'   40 A'   41 A'   42 A'   43 A'   44 A'   45 A'    3 A"
 -0.535  -0.528  -0.509  -0.491  -0.486  -0.486  -0.437  -0.427
  4 A"   46 A'   47 A'   48 A'    5 A"   49 A'    6 A"   50 A'
 -0.380  -0.332  -0.329  -0.327  -0.267
 51 A'    7 A"    8 A"    9 A"   10 A"

          Ground-State Mulliken Net Atomic Charges

     Atom                 Charge (a.u.)    Spin (a.u.)
  --------------------------------------------------------
      1 C                     0.702252       0.005799
      2 C                     0.220284      -0.005151
      3 C                     0.509721      -0.005572
      4 C                     0.679675       0.005724
      5 C                     0.047097      -0.004819
      6 C                     0.816493       0.003335
      7 N                    -0.687854       0.007137
      8 N                    -0.675209      -0.007052
      9 C                     0.380483       0.007546
     10 C                     0.328883      -0.011385
     11 C                     0.757048       0.001171
     12 C                     0.605740      -0.000245
     13 C                     0.600124       0.016649
     14 C                     0.567752       0.000126
     15 H                    -0.428840      -0.000126
     16 H                    -0.530465       0.000133
     17 H                    -0.435334       0.000112
     18 H                    -0.415237      -0.000122
     19 H                    -0.526900       0.000095
     20 H                    -0.548376      -0.000621
     21 H                    -0.537497       0.009495
     22 H                    -0.542393       0.009549
     23 H                    -0.554313      -0.000551
     24 O                    -1.187967      -0.051673
     25 Ca                    0.854832       1.020446
  --------------------------------------------------------
  Sum of atomic charges =    -0.000000

                    Cartesian Multipole Moments
 -----------------------------------------------------------------
    Charge (ESU x 10^10)
                 0.0000
    Dipole Moment (Debye)
         X      -5.6204      Y      -0.2718      Z      -0.0000
       Tot       5.6270
    Quadrupole Moments (Debye-Ang)
        XX     -66.2891     XY       0.9920     YY     -97.8651
        XZ      -0.0000     YZ       0.0000     ZZ    -112.9906

 Total job time:  867231.11s(wall), 1213762.03s(cpu)
        *  Thank you very much for using Q-Chem.  Have a nice day.  *
